title="Example1"
VARIABLES = "X", "Y", "U", "V"
ZONE N=8, E=5, F=FEPOINT, ET=QUADRILATERAL
0.0 0.0 0.0 0.0
2.5 0.0 0.025 0.0
2.5 3.0 0.025 -0.009 
0.0 2.0 0.0 -0.006
0.5 0.5 0.005 -0.0015
2.0 0.75 0.02 -0.00225
1.75 1.75 0.0175 -0.00525
0.65 1.6 0.0065 -0.0048
1 5 8 4
1 2 6 5
5 6 7 8
2 3 7 6
3 4 8 7 